Generated by GENIBO program
Number of atoms                            I                7
Charge                                     I                0
Multiplicity                               I                1
Number of electrons                        I               20
Number of alpha electrons                  I               10
Number of beta electrons                   I               10
Number of basis functions                  I               89
Atomic numbers                             I   N=           7
           7           1           1           1           8           1
           1
Nuclear charges                            R   N=           7
  7.00000000E+00  1.00000000E+00  1.00000000E+00  1.00000000E+00  8.00000000E+00
  1.00000000E+00  1.00000000E+00
Current cartesian coordinates              R   N=          21
 -2.6372828821817547E+00 -4.0742495245622734E-02  7.5589044982602479E-05 -3.0798945350773832E+00  1.8162157783194808E+00
 -2.0072670895130085E-01 -3.5201251330560601E+00 -9.6856022788457674E-01 -1.4285762583874499E+00 -3.4649073356962692E+00
 -6.2506471022238552E-01  1.6295297344736985E+00  2.9640354263802995E+00  2.0010309933019441E-01  1.8897261245650620E-05
  1.1465724288186054E+00 -6.4175099190229498E-02 -1.1905274584759890E-03  3.6670513392409938E+00 -1.4739863771607482E+00
  4.1573974740431361E-04
Number of primitive shells                 I               53
Pure/Cartesian d shells                    I                1
Pure/Cartesian f shells                    I                1
Shell types                                I   N=          53
           0           0           0           0           0           0
           0           0           0           1           1           1
           1           2           0           0           0           0
           1           0           0           0           0           1
           0           0           0           0           1           0
           0           0           0           0           0           0
           0           0           1           1           1           1
           2           0           0           0           0           1
           0           0           0           0           1
Number of primitives per shell             I   N=          53
           1           1           1           1           1           1
           1           1           1           1           1           1
           1           1           1           1           1           1
           1           1           1           1           1           1
           1           1           1           1           1           1
           1           1           1           1           1           1
           1           1           1           1           1           1
           1           1           1           1           1           1
           1           1           1           1           1
Shell to atom map                          I   N=          53
           1           1           1           1           1           1
           1           1           1           1           1           1
           1           1           2           2           2           2
           2           3           3           3           3           3
           4           4           4           4           4           5
           5           5           5           5           5           5
           5           5           5           5           5           5
           5           6           6           6           6           6
           7           7           7           7           7
Primitive exponents                        R   N=          53
  9.04600000E+03  1.35700000E+03  3.09300000E+02  8.77300000E+01  2.85600000E+01
  1.02100000E+01  3.83800000E+00  7.46600000E-01  2.24800000E-01  1.35500000E+01
  2.91700000E+00  7.97300000E-01  2.18500000E-01  8.17000000E-01  1.30100000E+01
  1.96200000E+00  4.44600000E-01  1.22000000E-01  7.27000000E-01  1.30100000E+01
  1.96200000E+00  4.44600000E-01  1.22000000E-01  7.27000000E-01  1.30100000E+01
  1.96200000E+00  4.44600000E-01  1.22000000E-01  7.27000000E-01  1.17200000E+04
  1.75900000E+03  4.00800000E+02  1.13700000E+02  3.70300000E+01  1.32700000E+01
  5.02500000E+00  1.01300000E+00  3.02300000E-01  1.77000000E+01  3.85400000E+00
  1.04600000E+00  2.75300000E-01  1.18500000E+00  1.30100000E+01  1.96200000E+00
  4.44600000E-01  1.22000000E-01  7.27000000E-01  1.30100000E+01  1.96200000E+00
  4.44600000E-01  1.22000000E-01  7.27000000E-01
Contraction coefficients                   R   N=          53
  1.00000000E+00  1.00000000E+00  1.00000000E+00  1.00000000E+00  1.00000000E+00
  1.00000000E+00  1.00000000E+00  1.00000000E+00  1.00000000E+00  1.00000000E+00
  1.00000000E+00  1.00000000E+00  1.00000000E+00  1.00000000E+00  1.00000000E+00
  1.00000000E+00  1.00000000E+00  1.00000000E+00  1.00000000E+00  1.00000000E+00
  1.00000000E+00  1.00000000E+00  1.00000000E+00  1.00000000E+00  1.00000000E+00
  1.00000000E+00  1.00000000E+00  1.00000000E+00  1.00000000E+00  1.00000000E+00
  1.00000000E+00  1.00000000E+00  1.00000000E+00  1.00000000E+00  1.00000000E+00
  1.00000000E+00  1.00000000E+00  1.00000000E+00  1.00000000E+00  1.00000000E+00
  1.00000000E+00  1.00000000E+00  1.00000000E+00  1.00000000E+00  1.00000000E+00
  1.00000000E+00  1.00000000E+00  1.00000000E+00  1.00000000E+00  1.00000000E+00
  1.00000000E+00  1.00000000E+00  1.00000000E+00
Coordinates of each shell                  R   N=         159
 -2.6372828821817547E+00 -4.0742495245622734E-02  7.5589044982602479E-05 -2.6372828821817547E+00 -4.0742495245622734E-02
  7.5589044982602479E-05 -2.6372828821817547E+00 -4.0742495245622734E-02  7.5589044982602479E-05 -2.6372828821817547E+00
 -4.0742495245622734E-02  7.5589044982602479E-05 -2.6372828821817547E+00 -4.0742495245622734E-02  7.5589044982602479E-05
 -2.6372828821817547E+00 -4.0742495245622734E-02  7.5589044982602479E-05 -2.6372828821817547E+00 -4.0742495245622734E-02
  7.5589044982602479E-05 -2.6372828821817547E+00 -4.0742495245622734E-02  7.5589044982602479E-05 -2.6372828821817547E+00
 -4.0742495245622734E-02  7.5589044982602479E-05 -2.6372828821817547E+00 -4.0742495245622734E-02  7.5589044982602479E-05
 -2.6372828821817547E+00 -4.0742495245622734E-02  7.5589044982602479E-05 -2.6372828821817547E+00 -4.0742495245622734E-02
  7.5589044982602479E-05 -2.6372828821817547E+00 -4.0742495245622734E-02  7.5589044982602479E-05 -2.6372828821817547E+00
 -4.0742495245622734E-02  7.5589044982602479E-05 -3.0798945350773832E+00  1.8162157783194808E+00 -2.0072670895130085E-01
 -3.0798945350773832E+00  1.8162157783194808E+00 -2.0072670895130085E-01 -3.0798945350773832E+00  1.8162157783194808E+00
 -2.0072670895130085E-01 -3.0798945350773832E+00  1.8162157783194808E+00 -2.0072670895130085E-01 -3.0798945350773832E+00
  1.8162157783194808E+00 -2.0072670895130085E-01 -3.5201251330560601E+00 -9.6856022788457674E-01 -1.4285762583874499E+00
 -3.5201251330560601E+00 -9.6856022788457674E-01 -1.4285762583874499E+00 -3.5201251330560601E+00 -9.6856022788457674E-01
 -1.4285762583874499E+00 -3.5201251330560601E+00 -9.6856022788457674E-01 -1.4285762583874499E+00 -3.5201251330560601E+00
 -9.6856022788457674E-01 -1.4285762583874499E+00 -3.4649073356962692E+00 -6.2506471022238552E-01  1.6295297344736985E+00
 -3.4649073356962692E+00 -6.2506471022238552E-01  1.6295297344736985E+00 -3.4649073356962692E+00 -6.2506471022238552E-01
  1.6295297344736985E+00 -3.4649073356962692E+00 -6.2506471022238552E-01  1.6295297344736985E+00 -3.4649073356962692E+00
 -6.2506471022238552E-01  1.6295297344736985E+00  2.9640354263802995E+00  2.0010309933019441E-01  1.8897261245650620E-05
  2.9640354263802995E+00  2.0010309933019441E-01  1.8897261245650620E-05  2.9640354263802995E+00  2.0010309933019441E-01
  1.8897261245650620E-05  2.9640354263802995E+00  2.0010309933019441E-01  1.8897261245650620E-05  2.9640354263802995E+00
  2.0010309933019441E-01  1.8897261245650620E-05  2.9640354263802995E+00  2.0010309933019441E-01  1.8897261245650620E-05
  2.9640354263802995E+00  2.0010309933019441E-01  1.8897261245650620E-05  2.9640354263802995E+00  2.0010309933019441E-01
  1.8897261245650620E-05  2.9640354263802995E+00  2.0010309933019441E-01  1.8897261245650620E-05  2.9640354263802995E+00
  2.0010309933019441E-01  1.8897261245650620E-05  2.9640354263802995E+00  2.0010309933019441E-01  1.8897261245650620E-05
  2.9640354263802995E+00  2.0010309933019441E-01  1.8897261245650620E-05  2.9640354263802995E+00  2.0010309933019441E-01
  1.8897261245650620E-05  2.9640354263802995E+00  2.0010309933019441E-01  1.8897261245650620E-05  1.1465724288186054E+00
 -6.4175099190229498E-02 -1.1905274584759890E-03  1.1465724288186054E+00 -6.4175099190229498E-02 -1.1905274584759890E-03
  1.1465724288186054E+00 -6.4175099190229498E-02 -1.1905274584759890E-03  1.1465724288186054E+00 -6.4175099190229498E-02
 -1.1905274584759890E-03  1.1465724288186054E+00 -6.4175099190229498E-02 -1.1905274584759890E-03  3.6670513392409938E+00
 -1.4739863771607482E+00  4.1573974740431361E-04  3.6670513392409938E+00 -1.4739863771607482E+00  4.1573974740431361E-04
  3.6670513392409938E+00 -1.4739863771607482E+00  4.1573974740431361E-04  3.6670513392409938E+00 -1.4739863771607482E+00
  4.1573974740431361E-04  3.6670513392409938E+00 -1.4739863771607482E+00  4.1573974740431361E-04
Total Energy                               R      0.000000000000000E+00
Alpha Orbital Energies                     R   N=          37
 -2.0500820555128026E+01 -1.5563737715859650E+01 -1.1623720694619506E+00 -6.4634691822300661E-01 -6.4557269374582227E-01
 -4.6109707088769925E-01 -1.2906007132016286E+00 -6.5288862292777372E-01 -5.2510661307843509E-01 -4.5152381472252007E-01
  1.7312630582438340E-01  2.4959988730946617E-01  2.5240821587292939E-01  5.8619509151854043E-01  5.8749789797913932E-01
  7.7053200213860562E-01  9.9269728563654558E-01  1.0157438711558036E+00  1.0184503761569617E+00  1.2003802131657078E+00
  1.2838875037280777E+00  1.2907030718587678E+00  1.7364768580791627E+00  1.7460956299975998E+00  1.8574193584321770E+00
  1.8974427239150411E+00  2.2681511895359760E-01  3.9444470210928267E-01  7.0627632671006224E-01  7.9550261416292878E-01
  1.1104621071241410E+00  1.1627570667889344E+00  1.2639894000912621E+00  1.4600339425359847E+00  1.5237488206076764E+00
  1.5739252259104703E+00  1.7191852741415323E+00
Alpha MO coefficients                      R   N=        3293
  1.1656559859223638E-09 -8.2575552973944447E-09  8.8651078784786199E-08 -3.4948301143763127E-07  1.8027500977562711E-06
 -4.6624188288690166E-06  1.1998057617401772E-05 -2.9160902951319021E-06 -5.4172605214344178E-05  4.1066706180384823E-07
 -7.3830692685608785E-08 -2.7006586315386622E-11 -5.4435964359241389E-06  7.3830732093872052E-07  3.6255523531927824E-09
  1.0524428626109277E-05 -1.4783403356449722E-06 -2.2482433428073453E-08 -5.5314003193620484E-05  1.3771823337605713E-06
 -2.3207176393216924E-07  7.3070958489085056E-06  1.8272479117207654E-07  6.0323184655748155E-08  9.5347227028360630E-06
  1.3943541623243884E-07  9.8502968061306159E-06  4.8180443467529699E-07 -3.1955993107248855E-06  9.0991754958952670E-06
 -1.0858862815439086E-05  5.6072505019744517E-06  2.6050079188101643E-06 -2.5989377669556484E-07  4.3532009799527641E-07
 -2.5532385251630461E-06  3.5409060019925993E-06 -8.0481005568718603E-06  5.2956026911007727E-06 -2.4708240516523837E-06
 -3.7433949209157635E-06  4.4512438884203184E-07 -2.6666530123574894E-06  4.4321787213920601E-06 -8.0295737439431605E-06
  5.5101650170373099E-06 -1.4198873655445928E-06  3.9211781124741852E-06  7.0987920327249179E-04  5.4743186268204182E-03
  2.7796204368361267E-02  1.0497412103857655E-01  2.8223487396487557E-01  4.5089170145818885E-01  2.6585062423680739E-01
  2.2482969519061386E-02  1.0069708331673910E-04 -2.9345872589065831E-04 -6.0526039605437489E-04 -2.7708142313349442E-07
 -4.6695458730958541E-04 -9.6875432277645991E-04 -4.3443573782651517E-07  2.8414759722394240E-05  1.0691186438254688E-04
  3.6649970560934676E-08  5.2277188284822156E-05  2.9230531517796562E-05  2.6723514784727234E-08 -2.1103112646387321E-03
  6.6344180496059654E-05 -1.4731088981364035E-07 -2.1013838242922175E-03  3.8723604230730083E-08 -1.9971676853853776E-03
  1.4214640558895863E-05  1.0502647441062292E-04  1.5001871463491271E-04  1.1603113601465805E-04  5.7782127209823123E-05
 -3.0196608362992384E-06  5.5487458065255166E-08  1.3419975524867554E-05  1.1139947176147439E-04  1.6576975491586698E-04
  1.6214231480873722E-05 -3.7523936072881961E-05  5.2716660863231883E-05 -2.3781298894844234E-08  6.9906313904442299E-04
  5.3921615710889681E-03  2.7362044055960516E-02  1.0336209635229834E-01  2.7788697669712026E-01  4.5036751349601944E-01
  2.7351985593803485E-01  2.2028706396955734E-02  5.6895246194036742E-04 -6.6248192992843539E-04  9.8848489588342753E-05
  8.0716672596013577E-08 -1.1662936192589157E-03  1.7498532076687536E-04  1.4612052434554554E-07  2.4994316121824294E-04
 -3.5731706459997083E-05 -6.2876631410375485E-08  8.7040877334890643E-05 -2.4088258479561790E-05 -2.5735744177907208E-08
 -2.1116722534828890E-03 -4.4867585601402692E-05 -1.0449855212642392E-07 -2.2555301166273067E-03 -3.9886299181981737E-08
 -2.2591200834683155E-03  1.2436918609026479E-05  1.3547110685119918E-04  4.1183095086416553E-04 -2.6673539505198742E-05
  1.4916362293058090E-05 -1.8076901601967815E-04  2.0232940422767354E-05  1.2139579483728240E-05  1.3756987602429817E-04
  4.0347871999897703E-04 -2.8729268988262984E-05  5.8174234753179307E-05  9.7311639819686738E-05  1.4093828771015834E-04
  1.2174740991546339E-05  1.3731124719400587E-04  4.0454910084229944E-04 -2.8451593452536755E-05  5.2834991585609930E-05
  6.3624604382767790E-05 -1.6113098715893098E-04  2.5004500773638005E-09 -1.3485950788860314E-09  1.4993953398457310E-07
 -2.6464565736790437E-07  2.7082932905607307E-06 -5.6885589464239129E-06  1.8425232233122280E-05 -1.2872673876306358E-05
 -4.5191412096551282E-05 -6.9757641475266754E-07 -3.1472540294446016E-08 -8.4447443976929044E-10  9.7570626935954136E-06
  1.0378723814526888E-06  9.2259645983361027E-09 -2.1973606033500901E-05 -1.2269782469545923E-06 -1.9624650536978657E-08
  2.3441796223751992E-05  2.5098485754980514E-06  6.0634069140541718E-09  1.7422544996942205E-05  3.0923676426698307E-06
  2.2028894188464368E-08  1.0092931667730935E-05  5.3656668420225680E-09  1.0928980777351240E-05  3.5714582343404377E-06
 -1.6537190776572255E-05  8.5859060148567851E-06  3.2638677605946032E-05 -4.2469689183668979E-05 -2.2282584533840222E-06
  8.9421703160834712E-09  3.3602213394823398E-07 -2.0613211243185336E-06  9.9633739380860140E-06 -1.1132402822777662E-05
 -2.7010461758408733E-06  2.2160515500724164E-07 -1.9248015048861131E-09 -1.3195403168906898E-04 -1.0396769707746393E-03
 -5.1853352173309043E-03 -2.1049569920083930E-02 -5.8429114670829715E-02 -1.3335633769700125E-01 -1.0629946494176717E-01
  4.4202837245377991E-01  3.4718805644043360E-01 -4.3008232084694627E-03  6.7973870603894491E-04 -1.4741007290933533E-07
 -2.3063722534980648E-02  3.6079077621233718E-03 -1.1735353395312267E-08 -5.3522934953037317E-02  8.4895907364507788E-03
 -1.8164134704019328E-06 -1.0425654516008690E-02  1.2737595518113470E-03  2.6272306255538241E-06 -1.1844276149573152E-03
  9.1635988220374316E-04  4.6125545262479241E-06  9.5837486845424397E-04  4.8665463676539756E-06  1.0449834480564489E-03
  7.4944557493061767E-03  5.2876792745049778E-02  1.2615989994743920E-01  1.6111297450631615E-02  2.2489957158827508E-03
 -2.7300458342320279E-02  3.0247963958246827E-03  7.5176771492840968E-03  5.3083611697416579E-02  1.2630942103558337E-01
  1.7059359420138392E-02  8.9633746255341432E-03  1.4602770012556700E-02  2.1500479542354158E-02  7.5138442118392375E-03
  5.3056220281843050E-02  1.2626988299224606E-01  1.6931567823563008E-02  8.1157211715139725E-03  9.4357909793565432E-03
 -2.4522918596985105E-02  6.2183627576554605E-07  4.7494710161960177E-06  2.4844163714913853E-05  9.4781951296534804E-05
  2.9097959981105371E-04  5.7349110637769406E-04  6.4166245730985089E-04 -1.9136805325699602E-03 -4.8946745803754316E-03
  5.6850188704384139E-04  2.1876501241814583E-05  4.2226380030161286E-07  3.0458057141625242E-03  1.1743990373455782E-04
  2.0204243700376928E-06  6.3941062150415732E-03  2.7047409850019253E-04  5.1321085938839040E-06  6.9997862582197728E-03
  8.6640655200031949E-04  4.8842530750166121E-06  1.2275331122878709E-04 -2.8820300099572532E-04 -8.1950684434715423E-07
  2.4259613620800807E-04 -9.1647837705749114E-08  2.2077205790131622E-04  5.6448919320152419E-05 -6.8793097641905781E-05
 -4.3431522868713998E-04  2.6650522034357017E-03 -1.8614608666549946E-03 -6.6763249028999703E-05 -3.0102805702933947E-06
  8.5296902569986961E-05  6.1394984039951671E-04  1.9235707233665347E-03  9.1814173379319464E-04  2.8234771739959834E-04
  3.4816031616353592E-04  1.6698192213525307E-07 -5.8134217837902080E-08 -4.4380980378425598E-07 -2.3218008818079581E-06
 -8.8419069340574093E-06 -2.7114939047746932E-05 -5.4033711036072884E-05 -6.2475334624270649E-05  1.7006151918054984E-04
  7.2062634517039068E-04  6.5734024411507556E-04  4.0370735570958837E-03  2.7835025331957773E-02  3.4262277595821563E-03
  2.0982349220777952E-02  1.4468093555443856E-01  8.0272691243641198E-03  4.9508781677035325E-02  3.4132895391839602E-01
  5.9488779311289326E-03  3.5555146515442199E-02  2.4488410839476060E-01 -7.9776518081416158E-04 -5.1029056380949393E-03
 -3.4735330200739663E-02 -1.4615853776090860E-03 -1.7373453345008723E-02  2.2008651384816205E-03  4.6362058552364637E-04
  3.1874464943367079E-03  8.4628770750370189E-03  4.1709015451063701E-03  5.6446866629436380E-04  1.1494116919198178E-03
  1.6429060991303920E-02 -1.2606745909186120E-02 -8.6179450533610424E-02 -2.3246912244945847E-01 -1.1464210842223244E-01
 -1.3179431771177042E-02 -1.4685704825292460E-02 -9.5219997471272903E-03  1.2136357178983901E-02  8.2986265206052470E-02
  2.2368854008000663E-01  1.1009174244229307E-01  1.2422716955785514E-02  1.2791454063899373E-02 -1.2078084829363386E-02
  4.3268255065743931E-08  3.4889028598798434E-07  1.6837222681856433E-06  7.1961781785222162E-06  1.8818741024308489E-05
  4.8638364700484931E-05  2.6082417543644776E-05 -1.9004760791676626E-04 -6.7714710812504704E-05  2.2686489384282941E-05
 -9.4329113451925796E-06 -1.1133379513062981E-04  1.2701929250970493E-04 -4.5607665225795122E-05 -5.7759378884817206E-04
  2.5051417699886925E-04 -1.2455571156076792E-04 -1.3723744514587200E-03  1.5519894785099279E-04  4.6717766791063648E-05
 -9.6432584716629993E-04  6.5774878041827350E-06 -4.6861483149661715E-05 -2.7396024486194904E-04 -1.3374133573803791E-05
  8.3137833105381875E-06 -1.5334836911390141E-05  6.1901200753330376E-06  6.5104289598557529E-05 -1.0547274313428243E-04
 -4.0793047832474866E-04 -7.4007118391011619E-05 -1.0682322702306893E-05  1.8709383566638812E-05  8.6992665546964579E-06
  6.0340338855439485E-05  2.6673583729520912E-04  1.6642756031162937E-04  3.5923924074828499E-05  3.1544728150799545E-05
 -2.0422021176237431E-04  3.0491747128223121E-07  2.2997181468227728E-06  1.2248720002899033E-05  4.5488154637945700E-05
  1.4461399027344154E-04  2.7191449359634907E-04  3.5574306281185023E-04 -8.1293267899715043E-04 -4.3691478879971518E-03
 -4.4235700287996111E-03 -2.7521247582633256E-02  4.0983357512083089E-03 -2.3055174052438336E-02 -1.4304493096697637E-01
  2.1303067039486732E-02 -5.4035915787616816E-02 -3.3753897469915783E-01  5.0260894019348808E-02 -4.0593672036249036E-02
 -2.4461768603457598E-01  3.6374260447471232E-02  4.7314523554021111E-03  2.6650415733287150E-02 -3.8968960706674575E-03
 -1.5823618665203792E-02  5.1427390960493286E-03  1.1522985418296440E-02 -1.4240506706413995E-02 -9.7595108125151459E-02
 -2.6093091742648750E-01 -1.2734217499335673E-01 -8.4856506906868991E-03  2.1370593222309747E-02 -1.6808386394908544E-03
  6.7336668819890991E-03  4.6043789552432157E-02  1.2385540378670853E-01  6.1264661944326011E-02  4.6721942112566087E-03
 -7.1381725812673120E-03  1.6137875031584516E-02  7.5398523023035941E-03  5.1553814059803117E-02  1.3869479634987961E-01
  6.8416944860213838E-02  4.9337472078796480E-03 -9.7206086206192959E-03 -1.5137822636671580E-02 -3.1708546213352997E-07
 -2.5670099608930559E-06 -1.2313469781318407E-05 -5.3062705565103265E-05 -1.3706987029592042E-04 -3.6078425018016370E-04
 -1.8130359971438767E-04  1.3940839252165559E-03  4.3926885484112289E-04 -1.6192237023711337E-04  7.1412774259270752E-05
 -1.8625608047131067E-05 -8.9256655160639990E-04  3.4023268223685852E-04 -9.6566865131555123E-05 -1.8158157305884250E-03
  9.4315562038495586E-04 -2.2760740129749434E-04 -1.0143030025129003E-03 -9.9590457249192584E-05 -1.9386979300318566E-04
 -2.9255256993889796E-05  2.9839331396084380E-04 -3.5844505133619582E-05  8.3349277729661864E-05  5.0581148323392489E-06
  1.3126750645353592E-04 -4.8279919139339072E-05 -4.0910369464122916E-04  5.6354868382493990E-04  3.2510205314475529E-03
  6.5869928543964707E-04 -2.3771639559482931E-04  4.7916616266754546E-05 -6.4854964697102555E-05 -4.6732145588857015E-04
 -1.8448156017220772E-03 -1.3978020338207540E-03 -2.6901746104107151E-04 -2.1154280742346278E-04 -3.1076887553938512E-05
 -4.0123934460337623E-05 -3.1558025427761951E-04 -1.5795283960254470E-03 -6.3997674859881956E-03 -1.7966793994006410E-02
 -4.1306265744996053E-02 -3.4621684631423837E-02  1.4603747979217954E-01  2.8346058070382468E-01  3.2716951575918543E-02
 -5.2352501402351944E-03 -1.0593943994349442E-05  1.7557508633886493E-01 -2.8135786468548449E-02 -5.5299168046380177E-05
  3.9358785689337100E-01 -6.2947401766712402E-02 -1.3293396528200481E-04  4.5659232384647508E-01 -7.6147422181260027E-02
 -2.1327639657850312E-04 -1.1870238149774878E-02  4.4828461457300500E-03  2.9553759996940885E-05 -4.1734162121132099E-04
  1.2615740399711550E-04  2.7932989107298258E-04 -3.5086726462187101E-03 -2.8033630514176937E-02 -5.8213061512392861E-02
 -4.5831963605500937E-02  1.9053705397915607E-02  7.2389687799820183E-03 -1.1095363839703962E-03 -3.4900164055027779E-03
 -2.7083183467407443E-02 -6.2087357757845824E-02 -3.9240486574248216E-02  1.6570626305797038E-02 -8.7341936339775036E-03
 -8.7260959742548935E-03 -3.4929172665990231E-03 -2.7209889207462871E-02 -6.1560789442285040E-02 -3.9978872482118274E-02
  1.6926902092271465E-02 -6.5753400579392825E-03  9.8014800373862482E-03  4.2932624616033925E-06  3.2796055952983738E-05
  1.7157448245909887E-04  6.5518982418447385E-04  2.0153539020690992E-03  3.9968161534051664E-03  4.5373215947398290E-03
 -1.2897525187424638E-02 -5.2973281437963017E-02  2.4356241240037217E-03  4.0955739932052913E-04  1.0868678145777369E-06
  1.2959811248898548E-02  2.0376574604806354E-03  5.3217575514659252E-06  2.7932542966275446E-02  5.1833276644813291E-03
  1.2893338197113794E-05  4.0112677812906054E-02  5.1962515685497791E-03  1.8663491185050858E-05  1.8229449325262014E-03
 -1.1073181099528790E-03 -2.3763741628372704E-06  1.4475170059623397E-03 -1.0952977767081350E-07  1.3813785716902461E-03
  7.9218188361521776E-04  8.3805133995184331E-03  4.3321746566529528E-03  6.7794829220756164E-02 -4.8742764427199270E-03
 -1.6935543755677556E-04 -4.1954938015577032E-06  1.6486759989705300E-04  1.8466728476235084E-03  2.5368521031801637E-03
  1.6103388183829966E-03  2.7466699771339130E-03  9.0864589223118382E-04  6.6107823960905973E-07 -1.3532007733978719E-06
 -1.0929583172553317E-05 -5.2559150231117818E-05 -2.2497637380974953E-04 -5.8275895418588629E-04 -1.5136446294195854E-03
 -9.1123468617112157E-04  4.9344068665016401E-03  7.7722125138189593E-03  5.9649899522721259E-04 -3.3790130952430479E-05
 -8.1217726501372399E-07  3.0987721781146954E-03 -1.8537563010680131E-04 -3.2477926298447696E-06  7.2846319957470089E-03
 -4.0275315712311660E-04 -1.2946741774387331E-05  9.2815321952810000E-03 -1.6523163112614479E-03 -1.9271085684373976E-05
 -1.9054103737678777E-04  6.7382731493437423E-05  4.0522064647085486E-06  2.6626913608991903E-04  1.1539283825845468E-05
  3.0133359503905610E-04  1.9523963728252176E-05 -1.2182451373132901E-04  1.1620710463055291E-03 -7.2818809283932331E-04
  5.7648035783273749E-04 -1.2360752616394162E-04  2.1966767931524939E-05 -4.4429203033313528E-05 -3.9382464176885743E-04
 -9.3714510793611405E-04 -9.3534119790229363E-04  5.1899442056333811E-04 -7.1414570940666494E-05 -2.1744138412981470E-04
 -3.6394569006722210E-05 -3.6616758464849301E-04 -6.5984697182459211E-04 -9.1380435922780814E-04  5.4698929901314606E-04
  2.3119350109958410E-06  1.9123495825431718E-04  1.4343298913458268E-04  1.1329217971806629E-03  5.6349648176727898E-03
  2.3031267551856565E-02  6.3756711500306845E-02  1.4692760381603687E-01  1.0486368315086705E-01 -4.7806665952331001E-01
 -4.3334690553272204E-01  2.3781152536198574E-03  4.3992471640047345E-03  1.8173957296358958E-06  1.1569727113438014E-02
  2.1478307951846326E-02  8.9630782213322744E-06  3.0696283545216106E-02  5.7149728533218522E-02  2.3648521771380677E-05
  8.4562725574076885E-03  1.3479703150285264E-02  9.5699226816737097E-06 -4.6370926819616831E-03  2.0154689711555898E-03
 -1.1516467026230693E-05 -4.0145880082819180E-03  1.1240540595267027E-06  3.7959830945689921E-03 -7.2795475103018250E-03
 -5.3587826815327137E-02 -1.0279868937959646E-01 -1.2553352059797544E-02 -2.8767284147322957E-02 -6.8151587003794398E-04
 -1.6638475561464759E-05 -7.7805898932767521E-03 -5.6921814761350997E-02 -1.1220947244011621E-01 -1.8519645423187223E-02
  1.3953787130625495E-02 -2.4156822922183706E-02  8.0053142531114028E-06 -2.6284158093214449E-06 -2.0251497525507700E-05
 -1.0457341063514723E-04 -4.0640663755826145E-04 -1.2174136857128742E-03 -2.5611321401752380E-03 -2.7881427549718892E-03
  1.0077933024288660E-02  2.4896825681422291E-02  1.0258176761096418E-03 -2.6629848898311626E-05 -3.0406869170130119E-06
  6.0355531793313084E-03 -2.0135256122967755E-04 -1.3249142417591835E-05  1.1425687061923852E-02 -1.1254847327488518E-04
 -4.8800477407856290E-05  2.4731769872744030E-02 -4.6825478525820193E-03 -2.0201124333705636E-04 -2.4335399640158630E-03
 -2.1989486942572225E-04  2.1369468961897440E-05 -9.0405371917630400E-05  5.6796964793654571E-06 -1.2482602046152541E-04
  9.4687085667422371E-05 -8.1227437329945071E-05  5.4889780805761025E-03 -2.8049270945911986E-03  8.8536167684404640E-04
 -6.4385948837923635E-04  1.1475602603150116E-04 -9.6747552685878970E-05 -9.3020543588793255E-04 -1.4146971805943361E-03
 -2.8051499857295633E-03  1.2632440353513698E-03  2.5990116176452890E-04 -1.0701537308451958E-04 -7.1048640506807912E-05
 -8.5057018057201604E-04 -4.1034642756679541E-04 -2.5916691416453387E-03  1.3173903699769663E-03  3.5546405797050540E-04
 -4.2446568254684390E-05  3.4120561249075623E-06  2.6548090095810231E-05  1.3514648907270036E-04  5.3612887010387868E-04
  1.5608947686367343E-03  3.3848114111242858E-03  3.0332802179388334E-03 -1.1429149377919008E-02 -3.1519502116206910E-02
  2.7688625655117038E-02 -1.5565161380335247E-02  1.8016735018129763E-05  1.4303096757657685E-01 -8.0487035228690565E-02
  9.3272264232126614E-05  3.2337633485695771E-01 -1.8136112226928122E-01  2.0991854750234797E-04  2.2550389557987816E-01
 -1.2329773682045320E-01  1.5157087835267425E-04 -1.3469581267304158E-02 -1.7806807547579798E-02 -2.0161281603877609E-05
  1.4986137964606478E-02 -9.8671220768802586E-06  3.3563625318580928E-04 -1.1836433300661559E-02 -8.4569487736680271E-02
 -2.1551344266986533E-01 -8.8481689539661582E-02 -3.1232197981864298E-02 -1.3614418522270806E-02 -1.6274456017973332E-05
  1.2373042363195672E-02  8.8144173546420859E-02  2.3591442258626727E-01  1.0703515978240767E-01 -2.0095468355449532E-03
  3.1779452434946828E-02 -5.1089820432387723E-07  2.0340957412634377E-06  1.6643868528186338E-05  7.8494715540555055E-05
  3.4535157911067964E-04  8.6090142244597909E-04  2.3865238571594790E-03  1.1885906167491285E-03 -9.8463981788299067E-03
 -6.1054439459261511E-03 -7.3914676215049754E-04  1.7717016746107147E-04 -2.1541535393092451E-06 -3.7974922769247093E-03
  1.0047916301915557E-03 -1.4198221254823701E-05 -9.8830025521232517E-03  1.9336416390909087E-03 -2.3106675306176368E-05
 -7.4215472204063751E-03 -3.0029937269124372E-03 -3.8279912297188096E-04  8.0923010513449484E-04  4.3650224169731630E-05
  8.2101665564846934E-05 -1.7440474790008714E-03  3.0802389035226136E-04 -8.0232791049115440E-04  7.5040612892551638E-05
 -1.5567791590882359E-04  5.0129919121468082E-03 -3.2089860450671801E-03 -1.2256868068748483E-03 -7.8019133931485211E-04
  2.2277935786794138E-04 -6.6941639658075865E-05  9.8364942483378346E-04 -6.0347365419937725E-03  7.7285650538689949E-03
 -2.0779205288469224E-03  6.9175463717698917E-04 -6.1488358997959002E-04 -4.9757977511527436E-05  8.3179692214573552E-04
 -4.5744075262376983E-03  7.1811129374068881E-03 -1.8248804497079500E-03  9.9041295327734788E-04  3.4672134084202635E-04
  4.6717155581707226E-05  3.6542054223382005E-04  1.8457198953015634E-03  7.4039903798571701E-03  2.1226676588903405E-02
  4.7266755172844559E-02  3.9709495548575800E-02 -1.6802201535288089E-01 -3.3161070633211598E-01 -1.8085650449480038E-02
 -3.0093082316562686E-02 -1.2839698654853926E-05 -9.5980837784910011E-02 -1.5913000650226439E-01 -6.8661309194308000E-05
 -2.0587454936734687E-01 -3.4365880788308667E-01 -1.4485721042724529E-04 -2.0932472371303329E-01 -3.3042161451815044E-01
 -1.5032230173729527E-04  7.1129814574574105E-03  1.1537003890735238E-02  1.3719328908726627E-05  1.4016344859792581E-02
  1.0621526372400120E-05 -2.8658520040221506E-03  7.3425166639834944E-03  5.2040596348718812E-02  1.4333938522599637E-01
  1.4923808487904455E-02  2.0810435877308454E-02 -1.9766903303013162E-02  8.0771769803989138E-06  7.2970330014132554E-03
  5.2014859368215725E-02  1.4926475083353855E-01  5.8042483576383440E-02 -2.8462090887667480E-02  4.9244520720574869E-03
 -1.8596583331583100E-05  9.2074195070510485E-10  1.1910269840814237E-08  2.4631385613269173E-08  2.9580856406811355E-07